 Q-Chem 5.4 (devel), Q-Chem, Inc., Pleasanton, CA (2021)
 Q-Chem 5.4.0 for Intel X86 EM64T Linux

User input:
--------------------------------------------------------------
$molecule
-2 1
  O   19.3973640    8.2778510    3.1488240
  O   19.4120450    8.3058140    5.6866680
  O   21.3938140    9.3157660    4.4051830
  O   19.4934920    2.6917290    5.4659630
  O   19.4050830    2.5982240    3.2032890
  H   21.9695240    6.7123490    3.5205180
  H   21.9552500    6.6865620    5.3051010
  H   21.8465650    3.8160470    4.9907780
  H   21.5707170    3.9486340    3.2157330
  H   19.9182760    5.3822580    5.2341050
  H   19.8066790    5.4919470    3.6119550
  C   21.1100920    4.0127200    4.2067440
  C   21.3269940    6.6572140    4.4076560
  C   19.9148060    2.9978500    4.3097920
  N   20.5395030    5.3947110    4.3814040
  P   20.3218500    8.2593900    4.4120470
$end

$rem
   BASIS  =  cc-pVDZ
   JOB_TYPE  = sp
   METHOD  =  PBE
   SYM_IGNORE = True
$end
--------------------------------------------------------------

             Standard Nuclear Orientation (Angstroms)
    I     Atom           X                Y                Z
 ----------------------------------------------------------------
    1      O      19.3973640000     8.2778510000     3.1488240000
    2      O      19.4120450000     8.3058140000     5.6866680000
    3      O      21.3938140000     9.3157660000     4.4051830000
    4      O      19.4934920000     2.6917290000     5.4659630000
    5      O      19.4050830000     2.5982240000     3.2032890000
    6      H      21.9695240000     6.7123490000     3.5205180000
    7      H      21.9552500000     6.6865620000     5.3051010000
    8      H      21.8465650000     3.8160470000     4.9907780000
    9      H      21.5707170000     3.9486340000     3.2157330000
   10      H      19.9182760000     5.3822580000     5.2341050000
   11      H      19.8066790000     5.4919470000     3.6119550000
   12      C      21.1100920000     4.0127200000     4.2067440000
   13      C      21.3269940000     6.6572140000     4.4076560000
   14      C      19.9148060000     2.9978500000     4.3097920000
   15      N      20.5395030000     5.3947110000     4.3814040000
   16      P      20.3218500000     8.2593900000     4.4120470000
 ----------------------------------------------------------------

   12    -889.4076731185      7.13e-06  Convergence criterion met
 Total energy in the final basis set =     -889.4076731185

                    Orbital Energies (a.u.)
 --------------------------------------------------------------

 Alpha MOs
 -- Occupied --
-76.0354 -18.4399 -18.4360 -18.3324 -18.3263 -18.3223 -13.8582  -9.7125
 -9.7010  -9.6525  -6.0048  -4.2243  -4.2221  -4.2219  -0.6671  -0.6439
 -0.5715  -0.5252  -0.4480  -0.4288  -0.4214  -0.3550  -0.2609  -0.2310
 -0.1948  -0.1598  -0.1381  -0.1008  -0.0924  -0.0892  -0.0672  -0.0642
  0.0023   0.0448   0.0494   0.0618   0.0693   0.0924   0.1243   0.1298
  0.1355   0.1496   0.1641   0.1978

          Ground-State Mulliken Net Atomic Charges

     Atom                 Charge (a.u.)
  ----------------------------------------
      1 O                    -0.629650
      2 O                    -0.634878
      3 O                    -0.598217
      4 O                    -0.385598
      5 O                    -0.400921
      6 H                    -0.001282
      7 H                    -0.001964
      8 H                    -0.012492
      9 H                    -0.007471
     10 H                     0.102003
     11 H                     0.102155
     12 C                     0.093432
     13 C                    -0.132184
     14 C                    -0.033994
     15 N                     0.036932
     16 P                     0.504130
  ----------------------------------------
  Sum of atomic charges =    -2.000000

                    Cartesian Multipole Moments
 -----------------------------------------------------------------
    Charge (ESU x 10^10)
                -9.6064
    Dipole Moment (Debye)
         X    -189.3682      Y     -65.0773      Z     -42.1357
       Tot     204.6235
    Quadrupole Moments (Debye-Ang)
        XX   -3809.8550     XY   -1299.3862     YY    -604.7599
        XZ    -830.9873     YZ    -287.3142     ZZ    -269.0245

 Total job time:  6.48s(wall), 72.11s(cpu)
        *  Thank you very much for using Q-Chem.  Have a nice day.  *
