 Q-Chem 5.2 (devel), Q-Chem, Inc., Pleasanton, CA (2019)
 Q-Chem 5.2.1 for Mac (Intel) OS X

User input:
--------------------------------------------------------------
$molecule
-2 1
O       19.41799684       8.77249819       3.15257656
O       19.43086489       8.77266989       5.68292238
O       21.45915125       9.71201801       4.41124395
O       19.41507821       3.10979154       5.52744298
O       19.38434670       3.11617926       3.26074864
H       21.94873102       7.11342822       3.50141814
H       21.97091763       7.11502872       5.28775314
H       21.72915763       4.25998731       5.25892925
H       21.68251028       4.29139331       3.45553640
H       19.87355542       5.85877097       5.24103255
H       19.83025408       5.87616120       3.61212352
C       21.10490600       4.42225952       4.37525555
C       21.32512314       7.07350158       4.40256749
C       19.88223011       3.44379107       4.38982212
N       20.53341044       5.81460743       4.41218631
P       20.35308040       8.69432984       4.41120287
$end

$rem
jobtype	opt
method	pbe
basis	cc-pvdz
geom_opt_print	7
sym_ignore	true
geom_opt_tol_gradient	10000000
geom_opt_tol_energy	10000000
geom_opt_tol_displacement	10000000
$end
--------------------------------------------------------------

             Standard Nuclear Orientation (Angstroms)
    I     Atom           X                Y                Z
 ----------------------------------------------------------------
    1      O      19.4179968400     8.7724981900     3.1525765600
    2      O      19.4308648900     8.7726698900     5.6829223800
    3      O      21.4591512500     9.7120180100     4.4112439500
    4      O      19.4150782100     3.1097915400     5.5274429800
    5      O      19.3843467000     3.1161792600     3.2607486400
    6      H      21.9487310200     7.1134282200     3.5014181400
    7      H      21.9709176300     7.1150287200     5.2877531400
    8      H      21.7291576300     4.2599873100     5.2589292500
    9      H      21.6825102800     4.2913933100     3.4555364000
   10      H      19.8735554200     5.8587709700     5.2410325500
   11      H      19.8302540800     5.8761612000     3.6121235200
   12      C      21.1049060000     4.4222595200     4.3752555500
   13      C      21.3251231400     7.0735015800     4.4025674900
   14      C      19.8822301100     3.4437910700     4.3898221200
   15      N      20.5334104400     5.8146074300     4.4121863100
   16      P      20.3530804000     8.6943298400     4.4112028700
 ----------------------------------------------------------------

   18    -889.4039914875      4.16e-09  Convergence criterion met
 Total energy in the final basis set =     -889.4039914875
 Final energy is   -889.40399148747895
 **  OPTIMIZATION CONVERGED  **

                    Orbital Energies (a.u.)
 --------------------------------------------------------------

 Alpha MOs
 -- Occupied --
-76.0353 -18.4388 -18.4382 -18.3325 -18.3235 -18.3224 -13.8599  -9.7129
 -9.7021  -9.6533  -6.0046  -4.2241  -4.2219  -4.2217  -0.6682  -0.6442
 -0.5723  -0.5243  -0.4468  -0.4255  -0.4231  -0.3557  -0.2612  -0.2326
 -0.1967  -0.1607  -0.1399  -0.1015  -0.0926  -0.0899  -0.0672  -0.0653
  0.0032   0.0457   0.0505   0.0611   0.0689   0.0917   0.1244   0.1309
  0.1367   0.1511   0.1665   0.1999

          Ground-State Mulliken Net Atomic Charges

     Atom                 Charge (a.u.)
  ----------------------------------------
      1 O                    -0.632275
      2 O                    -0.634903
      3 O                    -0.596237
      4 O                    -0.392299
      5 O                    -0.394442
      6 H                     0.000432
      7 H                    -0.000004
      8 H                    -0.010859
      9 H                    -0.009808
     10 H                     0.102311
     11 H                     0.105562
     12 C                     0.099760
     13 C                    -0.133158
     14 C                    -0.037387
     15 N                     0.033235
     16 P                     0.500073
  ----------------------------------------
  Sum of atomic charges =    -2.000000

                    Cartesian Multipole Moments
 -----------------------------------------------------------------
    Charge (ESU x 10^10)
                -9.6064
    Dipole Moment (Debye)
         X    -189.3877      Y     -69.6087      Z     -42.3521
       Tot     206.1718
    Quadrupole Moments (Debye-Ang)
        XX   -3811.3188     XY   -1389.9587     YY    -667.1176
        XZ    -835.1117     YZ    -307.2581     ZZ    -270.8990

 Total job time:  13.11s(wall), 136.00s(cpu)
        *  Thank you very much for using Q-Chem.  Have a nice day.  *
