 Q-Chem 5.2 (devel), Q-Chem, Inc., Pleasanton, CA (2019)
 Q-Chem 5.2.1 for Mac (Intel) OS X

User input:
--------------------------------------------------------------
$molecule
-2 1
O       19.41799684       8.77249819       3.15257656
O       19.43086489       8.77266989       5.68292238
O       21.45915125       9.71201801       4.41124395
O       19.41507821       3.10979154       5.52744298
O       19.38434670       3.11617926       3.26074864
H       21.94873102       7.11342822       3.50141814
H       21.97091763       7.11502872       5.28775314
H       21.72915763       4.25998731       5.25892925
H       21.68251028       4.29139331       3.45553640
H       19.87355542       5.85877097       5.24103255
H       19.83025408       5.87616120       3.61212352
C       21.10490600       4.42225952       4.37525555
C       21.32512314       7.07350158       4.40256749
C       19.88223011       3.44379107       4.38982212
N       20.53341044       5.81460743       4.41218631
P       20.35308040       8.69432984       4.41120287
$end

$rem
jobtype	freq
method	pbe
basis	cc-pvdz
vibman_print	7
sym_ignore	true
$end
--------------------------------------------------------------

             Standard Nuclear Orientation (Angstroms)
    I     Atom           X                Y                Z
 ----------------------------------------------------------------
    1      O      19.4179968400     8.7724981900     3.1525765600
    2      O      19.4308648900     8.7726698900     5.6829223800
    3      O      21.4591512500     9.7120180100     4.4112439500
    4      O      19.4150782100     3.1097915400     5.5274429800
    5      O      19.3843467000     3.1161792600     3.2607486400
    6      H      21.9487310200     7.1134282200     3.5014181400
    7      H      21.9709176300     7.1150287200     5.2877531400
    8      H      21.7291576300     4.2599873100     5.2589292500
    9      H      21.6825102800     4.2913933100     3.4555364000
   10      H      19.8735554200     5.8587709700     5.2410325500
   11      H      19.8302540800     5.8761612000     3.6121235200
   12      C      21.1049060000     4.4222595200     4.3752555500
   13      C      21.3251231400     7.0735015800     4.4025674900
   14      C      19.8822301100     3.4437910700     4.3898221200
   15      N      20.5334104400     5.8146074300     4.4121863100
   16      P      20.3530804000     8.6943298400     4.4112028700
 ----------------------------------------------------------------

   18    -889.4039914868      4.16e-09  Convergence criterion met
 Total energy in the final basis set =     -889.4039914868

                    Orbital Energies (a.u.)
 --------------------------------------------------------------

 Alpha MOs
 -- Occupied --
-76.0353 -18.4388 -18.4382 -18.3325 -18.3235 -18.3224 -13.8599  -9.7129
 -9.7021  -9.6533  -6.0046  -4.2241  -4.2219  -4.2217  -0.6682  -0.6442
 -0.5723  -0.5243  -0.4468  -0.4255  -0.4231  -0.3557  -0.2612  -0.2326
 -0.1967  -0.1607  -0.1399  -0.1015  -0.0926  -0.0899  -0.0672  -0.0653
  0.0032   0.0457   0.0505   0.0611   0.0689   0.0917   0.1244   0.1309
  0.1367   0.1511   0.1665   0.1999

          Ground-State Mulliken Net Atomic Charges

     Atom                 Charge (a.u.)
  ----------------------------------------
      1 O                    -0.632275
      2 O                    -0.634903
      3 O                    -0.596237
      4 O                    -0.392299
      5 O                    -0.394442
      6 H                     0.000432
      7 H                    -0.000004
      8 H                    -0.010859
      9 H                    -0.009808
     10 H                     0.102311
     11 H                     0.105562
     12 C                     0.099760
     13 C                    -0.133158
     14 C                    -0.037387
     15 N                     0.033235
     16 P                     0.500073
  ----------------------------------------
  Sum of atomic charges =    -2.000000

                    Cartesian Multipole Moments
 -----------------------------------------------------------------
    Charge (ESU x 10^10)
                -9.6064
    Dipole Moment (Debye)
         X    -189.3877      Y     -69.6087      Z     -42.3521
       Tot     206.1718
    Quadrupole Moments (Debye-Ang)
        XX   -3811.3188     XY   -1389.9587     YY    -667.1176
        XZ    -835.1117     YZ    -307.2581     ZZ    -270.8990

 Frequency:      -151.84                -117.75                 -92.62
 Force Cnst:      0.0973                 0.0908                 0.0288
 Red. Mass:       7.1641                11.1178                 5.7050
 IR Intens:        2.303                 11.974                  2.384
 Frequency:       -49.79                 133.16                 138.63
 Force Cnst:      0.0093                 0.0211                 0.1051
 Red. Mass:       6.3524                 2.0165                 9.2837
 IR Intens:        0.335                  4.160                 14.556
 Frequency:       175.72                 217.26                 305.00
 Force Cnst:      0.0622                 0.1754                 0.2873
 Red. Mass:       3.4207                 6.3061                 5.2411
 IR Intens:        9.007                 12.172                 60.396
 Frequency:       359.23                 394.32                 449.02
 Force Cnst:      0.1986                 0.9207                 1.1660
 Red. Mass:       2.6122                10.0505                 9.8157
 IR Intens:        0.899                 13.953                 22.432
 Frequency:       481.57                 610.81                 672.32
 Force Cnst:      1.8458                 1.1667                 1.0420
 Red. Mass:      13.5089                 5.3078                 3.9128
 IR Intens:       26.945                 28.742                 31.644
 Frequency:       700.89                 747.14                 826.61
 Force Cnst:      0.4503                 2.9097                 0.4987
 Red. Mass:       1.5559                 8.8470                 1.2388
 IR Intens:        6.926                  0.841                  0.158
 Frequency:       850.27                 919.41                 935.37
 Force Cnst:      2.7205                 0.6449                 1.6320
 Red. Mass:       6.3868                 1.2949                 3.1660
 IR Intens:       48.030                 10.118                  6.449
 Frequency:       940.69                 969.15                1003.84
 Force Cnst:      7.3105                 3.4460                 0.6308
 Red. Mass:      14.0219                 6.2270                 1.0624
 IR Intens:       65.521                 16.973                  2.746
 Frequency:      1046.64                1051.68                1162.43
 Force Cnst:      6.8689                 1.0421                 1.1842
 Red. Mass:      10.6424                 1.5992                 1.4875
 IR Intens:      197.011                 16.535                  1.410
 Frequency:      1212.48                1249.61                1299.33
 Force Cnst:      1.2364                12.6298                 1.9600
 Red. Mass:       1.4275                13.7277                 1.9705
 IR Intens:        5.262                190.068                 86.244
 Frequency:      1306.87                1323.88                1357.32
 Force Cnst:      1.5236                 1.4926                 1.3073
 Red. Mass:       1.5141                 1.4454                 1.2044
 IR Intens:       79.965                 79.394                173.703
 Frequency:      1378.65                1587.47                1626.86
 Force Cnst:      1.2160                 1.5811                15.6517
 Red. Mass:       1.0859                 1.0649                10.0371
 IR Intens:       19.989                 18.605                310.657
 Frequency:      2952.13                3024.10                3089.82
 Force Cnst:      5.5009                 5.7663                 5.9371
 Red. Mass:       1.0713                 1.0702                 1.0555
 IR Intens:       95.735                 95.083                 19.977
 Frequency:      3109.85                3165.83                3190.16
 Force Cnst:      6.0107                 6.5445                 6.6621
 Red. Mass:       1.0549                 1.1083                 1.1111
 IR Intens:       34.827                 29.045                 33.089

 STANDARD THERMODYNAMIC QUANTITIES FOR ANHARMONIC VIBRATION -- VPT2

   Zero point vibrational energy: ************ kcal/mol

   Vibrational Enthalpy:       Infinity kcal/mol
   Vibrational Entropy:        Infinity  cal/mol.K

   Total Enthalpy:             Infinity kcal/mol
   Total Entropy:              Infinity  cal/mol.K

 Total job time:  90.30s(wall), 937.20s(cpu)
        *  Thank you very much for using Q-Chem.  Have a nice day.  *
